LAMMPS data file

192 atoms
2 atom types
0.0 12.540190696716309 xlo xhi
0.0 12.540190696716309 ylo yhi
0.0 12.540190696716309 zlo zhi
0.0 0.0 0.0 xy xz yz

Atoms

1 1 0.441 0.183 3.217
2 1 -4.859 -6.126 -3.017
3 1 -5.842 0.460 -0.786
4 1 -2.040 -1.556 6.238
5 1 -5.017 5.136 3.557
6 1 -0.738 -6.233 -4.944
7 1 -5.713 1.764 1.898
8 1 5.709 -1.832 3.208
9 1 3.973 6.175 -5.781
10 1 5.734 3.997 5.372
11 1 1.326 -1.946 1.598
12 1 0.603 0.812 -1.937
13 1 3.462 2.808 -0.599
14 1 -1.798 5.739 3.854
15 1 -1.752 -0.163 1.050
16 1 -0.549 -4.439 4.976
17 1 5.825 -4.484 3.041
18 1 0.369 -0.215 5.726
19 1 -5.684 -1.940 0.650
20 1 3.892 4.598 3.771
21 1 4.629 -1.355 5.815
22 1 0.193 -2.228 -0.891
23 1 3.870 -1.361 0.972
24 1 2.143 5.426 0.029
25 1 -5.883 -3.332 -2.866
26 1 -2.832 -2.757 4.117
27 1 3.404 -5.960 -2.983
28 1 -2.895 -5.190 -4.141
29 1 -3.753 3.347 1.906
30 1 -3.482 1.621 -3.485
31 1 1.821 -3.667 3.812
32 1 -3.017 3.791 6.055
33 1 1.280 5.147 5.223
34 1 -3.217 -3.399 -2.136
35 1 0.787 5.713 -2.867
36 1 -1.557 1.644 -1.018
37 1 2.997 3.429 -5.190
38 1 4.583 -1.700 -1.981
39 1 0.746 -3.814 -4.521
40 1 -1.484 -1.394 -2.536
41 1 -5.279 4.315 -1.322
42 1 4.629 -6.124 -0.547
43 1 -0.851 2.235 -5.389
44 1 6.244 1.548 4.468
45 1 2.551 -3.522 -1.796
46 1 2.421 0.951 1.021
47 1 -5.238 4.384 -5.083
48 1 5.532 -4.386 5.816
49 1 -3.842 0.632 -5.931
50 1 3.166 -5.719 2.506
51 1 1.774 2.590 3.108
52 1 4.983 4.038 1.229
53 1 -1.750 -4.285 -0.080
54 1 -5.350 -1.348 -5.012
55 1 -5.932 2.580 -3.308
56 1 4.574 1.213 -2.319
57 1 -5.797 -4.420 0.161
58 1 -4.212 -3.657 -5.965
59 1 -0.615 5.686 -0.201
60 1 1.014 3.000 -3.576
61 1 -1.034 3.432 1.178
62 1 2.218 -2.492 -6.264
63 1 -3.053 -2.512 1.572
64 1 2.930 1.209 5.725
65 2 -0.335 0.567 2.816
66 2 -5.436 -5.304 -2.899
67 2 6.068 0.856 -1.328
68 2 -2.674 -0.759 -6.051
69 2 -5.477 5.974 3.400
70 2 -0.150 5.846 -4.023
71 2 -4.792 2.140 1.943
72 2 5.253 -1.310 4.056
73 2 4.363 -5.653 -6.225
74 2 5.878 3.099 5.203
75 2 0.869 -1.359 2.303
76 2 0.834 0.828 -0.954
77 2 3.973 3.243 0.175
78 2 -2.983 5.744 3.695
79 2 -2.121 -1.064 1.318
80 2 -0.617 -3.888 5.828
81 2 -5.937 -4.558 2.269
82 2 0.357 -0.107 4.718
83 2 -6.010 -1.101 0.103
84 2 3.640 5.646 3.858
85 2 5.326 -1.404 -6.202
86 2 -0.530 -2.914 -0.607
87 2 4.418 -1.327 1.778
88 2 2.960 5.900 -0.454
89 2 5.912 -2.713 -2.481
90 2 -2.538 -2.026 4.894
91 2 4.196 -5.742 -2.402
92 2 -2.076 -5.618 -4.427
93 2 -3.976 4.223 2.321
94 2 -2.978 1.834 -2.875
95 2 2.134 -3.243 4.606
96 2 -2.406 4.418 5.727
97 2 0.736 5.294 4.292
98 2 -3.136 -3.773 -3.110
99 2 1.681 6.053 -2.900
100 2 -0.782 1.347 -1.456
101 2 3.076 2.679 -5.866
102 2 4.652 -0.846 -2.186
103 2 0.424 -3.285 -3.773
104 2 -1.358 -0.522 -3.030
105 2 -5.213 4.230 -0.250
106 2 5.457 -5.415 -0.553
107 2 -0.175 2.571 -4.747
108 2 5.974 0.582 4.736
109 2 3.184 -2.815 -2.106
110 2 2.576 1.552 0.323
111 2 -4.464 4.122 -5.623
112 2 -6.122 -4.320 6.250
113 2 -3.861 1.219 5.899
114 2 2.673 -5.016 2.797
115 2 2.350 3.391 3.157
116 2 5.668 3.396 1.468
117 2 -2.235 -4.116 -1.090
118 2 -5.647 -1.671 -4.190
119 2 -5.667 3.257 -2.566
120 2 3.868 1.760 -1.680
121 2 -5.712 -3.549 0.136
122 2 -4.604 -2.777 -5.625
123 2 -0.838 5.153 0.587
124 2 1.831 3.170 -4.193
125 2 -0.367 2.822 1.630
126 2 1.708 -2.969 -5.572
127 2 -3.111 -2.373 2.639
128 2 2.066 0.968 6.058
129 2 1.060 0.148 2.350
130 2 -3.829 -5.936 -3.343
131 2 -5.086 0.677 -1.248
132 2 -1.013 -1.218 6.135
133 2 -5.527 4.843 4.310
134 2 -0.234 5.868 -5.656
135 2 -5.882 1.204 1.174
136 2 5.835 -2.690 3.546
137 2 3.122 5.901 6.264
138 2 6.239 4.029 6.165
139 2 1.063 -1.928 0.727
140 2 1.011 1.492 -2.414
141 2 2.896 3.627 -0.730
142 2 -1.477 -6.034 4.053
143 2 -2.366 0.512 1.564
144 2 0.216 -3.859 4.494
145 2 5.136 -5.061 2.786
146 2 1.017 -0.898 6.170
147 2 -6.073 -1.630 1.573
148 2 4.550 4.548 4.489
149 2 4.243 -0.552 6.098
150 2 1.060 -2.696 -1.356
151 2 3.171 -2.139 1.226
152 2 1.171 5.582 -0.247
153 2 -5.026 -3.056 -2.463
154 2 -2.210 -3.572 4.362
155 2 3.516 -6.093 -4.130
156 2 -3.454 -4.857 -4.858
157 2 -2.604 3.525 1.815
158 2 -4.470 2.074 -3.123
159 2 1.717 -3.107 2.956
160 2 -2.431 3.247 -5.881
161 2 1.173 4.231 5.446
162 2 -2.650 -2.463 -2.158
163 2 0.270 5.733 -1.885
164 2 -1.956 0.937 -0.592
165 2 3.666 3.882 -5.029
166 2 4.427 -1.583 -1.014
167 2 0.061 -4.492 -4.764
168 2 -0.606 -1.640 -1.927
169 2 -4.948 5.125 -1.839
170 2 4.931 5.537 -0.320
171 2 -0.455 1.579 -5.935
172 2 -6.080 1.469 3.474
173 2 2.587 -4.450 -2.167
174 2 2.725 0.152 0.716
175 2 -4.956 5.061 -4.447
176 2 5.946 -4.688 4.935
177 2 -3.412 0.964 -5.216
178 2 2.777 -5.893 1.702
179 2 2.157 1.942 2.305
180 2 4.488 4.424 2.097
181 2 -1.986 -3.836 0.662
182 2 -4.898 -0.612 -4.931
183 2 -5.588 2.868 -4.204
184 2 4.900 2.104 -2.762
185 2 -5.043 -4.551 -0.567
186 2 -3.833 -3.503 5.683
187 2 -0.994 -5.804 0.203
188 2 1.184 3.917 -3.235
189 2 -0.990 2.927 0.333
190 2 3.232 -2.282 -6.167
191 2 -3.909 -2.669 1.263
192 2 2.963 1.598 4.721
