LAMMPS data file generated by OpenBabel

1942 atoms

8 atom types

  -1.35000   31.24000 xlo xhi

  -1.35000   31.24000 ylo yhi

  -1.35000   31.24000 zlo zhi







Masses

6 12.0107 # C
1 1.00794 # H
7 14.0067 # N
8 15.9994 # O
2 1.0
3 1.0
4 1.0
5 1.0

Atoms

1 6 11.29000 16.53000 13.43000 # C
2 1 11.16000 16.36000 12.45000 # H
3 1 10.40000 16.52000 13.89000 # H
4 1 11.72000 17.42000 13.56000 # H
5 6 12.19000 15.43000 14.03000 # C
6 8 12.49000 15.43000 15.23000 # O
7 7 12.69000 14.53000 13.13000 # N
8 1 12.60000 14.66000 12.14000 # H
9 6 13.39000 13.33000 13.73000 # C
10 1 13.95000 13.57000 14.53000 # H
11 6 12.29000 12.43000 14.23000 # C
12 1 12.69000 11.61000 14.64000 # H
13 1 11.75000 12.92000 14.91000 # H
14 1 11.70000 12.17000 13.47000 # H
15 6 14.49000 12.73000 12.83000 # C
16 8 14.49000 12.83000 11.63000 # O
17 7 15.39000 11.93000 13.43000 # N
18 1 15.19000 11.72000 14.39000 # H
19 6 16.59000 11.33000 12.93000 # C
20 1 17.02000 10.79000 13.65000 # H
21 1 16.37000 10.73000 12.16000 # H
22 1 17.22000 12.05000 12.63000 # H
23 8 2.30000 6.28000 1.13000 # O
24 1 1.37000 6.26000 1.50000 # H
25 1 2.31000 5.89000 0.21000 # H
26 8 2.25000 2.75000 9.96000 # O
27 1 2.60000 2.58000 10.88000 # H
28 1 1.37000 2.30000 9.84000 # H
29 8 0.19000 3.68000 6.47000 # O
30 1 -0.63000 4.11000 6.86000 # H
31 1 -0.09000 2.95000 5.84000 # H
32 8 5.69000 12.75000 11.65000 # O
33 1 4.76000 12.68000 11.28000 # H
34 1 5.80000 13.64000 12.09000 # H
35 8 15.55000 15.11000 7.03000 # O
36 1 14.98000 14.95000 7.84000 # H
37 1 14.96000 15.21000 6.23000 # H
38 8 11.35000 7.03000 7.17000 # O
39 1 11.92000 7.81000 6.92000 # H
40 1 10.75000 7.29000 7.93000 # H
41 8 17.55000 6.07000 2.31000 # O
42 1 17.43000 5.94000 1.32000 # H
43 1 17.25000 5.26000 2.80000 # H
44 8 7.68000 11.44000 10.23000 # O
45 1 6.90000 11.61000 10.83000 # H
46 1 8.02000 12.31000 9.87000 # H
47 8 8.50000 7.98000 18.23000 # O
48 1 8.46000 8.74000 18.88000 # H
49 1 8.72000 8.34000 17.32000 # H
50 8 6.85000 10.12000 6.65000 # O
51 1 7.54000 9.96000 7.35000 # H
52 1 6.12000 10.69000 7.03000 # H
53 8 6.86000 11.61000 18.03000 # O
54 1 7.46000 12.40000 18.17000 # H
55 1 6.00000 11.92000 17.62000 # H
56 8 3.35000 14.35000 10.61000 # O
57 1 2.57000 14.04000 10.08000 # H
58 1 3.93000 14.93000 10.04000 # H
59 8 4.38000 3.92000 14.99000 # O
60 1 5.20000 3.36000 15.08000 # H
61 1 3.57000 3.34000 15.03000 # H
62 8 16.03000 4.47000 7.37000 # O
63 1 15.29000 4.93000 6.87000 # H
64 1 16.54000 5.15000 7.90000 # H
65 8 2.31000 17.13000 4.83000 # O
66 1 2.65000 17.90000 5.37000 # H
67 1 2.75000 17.13000 3.93000 # H
68 8 11.27000 13.41000 16.90000 # O
69 1 11.74000 13.41000 17.78000 # H
70 1 10.79000 12.54000 16.79000 # H
71 8 2.30000 14.34000 5.38000 # O
72 1 2.04000 15.30000 5.38000 # H
73 1 1.59000 13.80000 5.83000 # H
74 8 2.40000 10.91000 8.86000 # O
75 1 2.54000 10.07000 9.38000 # H
76 1 1.85000 11.55000 9.41000 # H
77 8 6.20000 17.86000 14.39000 # O
78 1 5.28000 17.69000 14.74000 # H
79 1 6.48000 18.78000 14.65000 # H
80 8 6.06000 9.64000 1.23000 # O
81 1 6.13000 10.48000 0.69000 # H
82 1 6.52000 9.77000 2.11000 # H
83 8 15.94000 1.14000 14.80000 # O
84 1 15.76000 1.81000 14.08000 # H
85 1 15.91000 1.60000 15.69000 # H
86 8 1.22000 6.43000 5.63000 # O
87 1 0.77000 5.55000 5.80000 # H
88 1 1.21000 6.97000 6.47000 # H
89 8 18.42000 17.67000 3.59000 # O
90 1 18.96000 17.38000 4.39000 # H
91 1 18.72000 18.57000 3.30000 # H
92 8 0.27000 15.96000 1.17000 # O
93 1 0.08000 15.00000 1.38000 # H
94 1 -0.06000 16.54000 1.92000 # H
95 8 16.89000 9.22000 6.12000 # O
96 1 17.84000 8.93000 6.20000 # H
97 1 16.81000 9.87000 5.37000 # H
98 8 16.41000 11.08000 4.32000 # O
99 1 17.27000 11.10000 3.80000 # H
100 1 16.55000 11.55000 5.20000 # H
101 8 1.13000 7.37000 15.97000 # O
102 1 2.01000 7.24000 16.42000 # H
103 1 1.00000 8.34000 15.75000 # H
104 8 6.13000 13.65000 7.26000 # O
105 1 5.64000 12.78000 7.35000 # H
106 1 5.90000 14.08000 6.39000 # H
107 8 8.09000 0.04000 5.02000 # O
108 1 8.49000 0.95000 4.93000 # H
109 1 7.09000 0.12000 5.08000 # H
110 8 1.97000 9.76000 12.64000 # O
111 1 2.86000 9.31000 12.50000 # H
112 1 1.24000 9.11000 12.45000 # H
113 8 15.25000 9.99000 1.90000 # O
114 1 14.62000 9.23000 2.03000 # H
115 1 15.73000 10.17000 2.76000 # H
116 8 11.87000 17.92000 16.16000 # O
117 1 12.11000 18.52000 15.40000 # H
118 1 11.94000 16.97000 15.86000 # H
119 8 3.17000 2.51000 18.01000 # O
120 1 3.88000 3.22000 18.07000 # H
121 1 2.29000 2.90000 18.29000 # H
122 8 14.66000 14.17000 9.53000 # O
123 1 14.07000 14.23000 10.33000 # H
124 1 14.51000 13.29000 9.07000 # H
125 8 16.67000 17.14000 5.72000 # O
126 1 16.26000 16.91000 4.84000 # H
127 1 16.49000 16.40000 6.37000 # H
128 8 5.98000 7.29000 2.70000 # O
129 1 6.22000 7.98000 2.02000 # H
130 1 5.20000 7.62000 3.24000 # H
131 8 12.81000 3.45000 9.44000 # O
132 1 11.95000 2.95000 9.31000 # H
133 1 13.43000 2.91000 10.00000 # H
134 8 15.76000 16.62000 3.07000 # O
135 1 16.65000 17.08000 3.10000 # H
136 1 15.55000 16.38000 2.12000 # H
137 8 8.07000 6.05000 14.65000 # O
138 1 7.60000 6.02000 15.54000 # H
139 1 7.56000 5.50000 13.99000 # H
140 8 13.94000 4.69000 16.74000 # O
141 1 13.74000 5.12000 17.62000 # H
142 1 14.72000 4.07000 16.83000 # H
143 8 9.73000 8.90000 15.72000 # O
144 1 10.19000 8.06000 15.43000 # H
145 1 9.17000 9.24000 14.97000 # H
146 8 9.91000 4.10000 12.42000 # O
147 1 9.14000 4.44000 12.96000 # H
148 1 9.57000 3.59000 11.63000 # H
149 8 10.41000 7.01000 4.29000 # O
150 1 10.67000 6.97000 5.25000 # H
151 1 9.56000 6.50000 4.15000 # H
152 8 0.76000 8.11000 7.89000 # O
153 1 1.75000 7.99000 7.98000 # H
154 1 0.52000 9.06000 8.10000 # H
155 8 1.30000 18.21000 15.71000 # O
156 1 1.20000 18.06000 16.70000 # H
157 1 0.44000 18.57000 15.35000 # H
158 8 8.65000 3.48000 1.95000 # O
159 1 9.24000 4.11000 1.46000 # H
160 1 8.84000 2.54000 1.66000 # H
161 8 17.19000 5.85000 18.31000 # O
162 1 16.93000 6.74000 17.95000 # H
163 1 17.17000 5.17000 17.58000 # H
164 8 13.62000 11.44000 5.45000 # O
165 1 14.45000 11.15000 4.97000 # H
166 1 13.13000 12.11000 4.89000 # H
167 8 5.50000 1.96000 8.85000 # O
168 1 5.45000 1.91000 9.85000 # H
169 1 5.52000 2.92000 8.56000 # H
170 8 10.08000 14.56000 4.77000 # O
171 1 9.62000 15.28000 4.25000 # H
172 1 10.04000 14.76000 5.75000 # H
173 8 3.51000 18.01000 8.53000 # O
174 1 4.01000 17.15000 8.59000 # H
175 1 4.16000 18.78000 8.50000 # H
176 8 17.95000 10.66000 8.73000 # O
177 1 17.33000 10.51000 7.97000 # H
178 1 17.43000 10.77000 9.58000 # H
179 8 3.21000 9.43000 2.42000 # O
180 1 4.03000 9.82000 2.00000 # H
181 1 2.94000 8.61000 1.93000 # H
182 8 14.58000 7.35000 7.28000 # O
183 1 14.53000 6.70000 8.03000 # H
184 1 15.38000 7.94000 7.41000 # H
185 8 4.61000 12.66000 17.27000 # O
186 1 4.11000 12.67000 16.41000 # H
187 1 3.98000 12.48000 18.03000 # H
188 8 11.11000 17.76000 2.37000 # O
189 1 10.51000 17.14000 2.87000 # H
190 1 11.42000 17.32000 1.52000 # H
191 8 2.02000 2.85000 14.98000 # O
192 1 1.22000 3.45000 14.85000 # H
193 1 1.92000 2.36000 15.84000 # H
194 8 16.32000 13.77000 0.81000 # O
195 1 16.00000 14.71000 0.71000 # H
196 1 15.56000 13.14000 0.69000 # H
197 8 4.64000 17.43000 3.23000 # O
198 1 4.97000 17.82000 4.09000 # H
199 1 5.40000 17.36000 2.58000 # H
200 8 14.00000 1.07000 4.26000 # O
201 1 13.76000 0.70000 3.36000 # H
202 1 14.99000 1.23000 4.30000 # H
203 8 2.49000 17.85000 12.41000 # O
204 1 3.06000 17.20000 12.91000 # H
205 1 2.33000 17.52000 11.48000 # H
206 8 9.40000 16.98000 9.04000 # O
207 1 10.20000 16.41000 9.25000 # H
208 1 8.91000 16.58000 8.27000 # H
209 8 3.82000 7.00000 4.80000 # O
210 1 4.27000 6.10000 4.77000 # H
211 1 2.88000 6.89000 5.13000 # H
212 8 15.47000 2.22000 17.29000 # O
213 1 15.42000 2.59000 18.21000 # H
214 1 14.75000 1.53000 17.17000 # H
215 8 6.14000 1.22000 1.17000 # O
216 1 7.12000 1.00000 1.24000 # H
217 1 5.83000 1.05000 0.24000 # H
218 8 7.81000 2.64000 17.49000 # O
219 1 8.48000 2.03000 17.92000 # H
220 1 7.08000 2.83000 18.14000 # H
221 8 8.88000 15.14000 11.95000 # O
222 1 8.65000 14.89000 11.01000 # H
223 1 9.49000 14.45000 12.34000 # H
224 8 13.51000 5.90000 14.33000 # O
225 1 13.79000 5.47000 15.18000 # H
226 1 13.76000 6.86000 14.34000 # H
227 8 8.03000 14.02000 9.24000 # O
228 1 8.93000 14.16000 8.82000 # H
229 1 7.32000 14.04000 8.53000 # H
230 8 9.22000 5.03000 8.99000 # O
231 1 8.97000 4.94000 8.03000 # H
232 1 9.70000 4.21000 9.30000 # H
233 8 5.39000 0.64000 5.12000 # O
234 1 4.58000 0.65000 5.70000 # H
235 1 5.42000 1.47000 4.57000 # H
236 8 14.34000 11.88000 0.41000 # O
237 1 14.66000 11.12000 0.98000 # H
238 1 13.42000 12.15000 0.71000 # H
239 8 2.97000 0.35000 1.71000 # O
240 1 3.46000 1.19000 1.50000 # H
241 1 3.59000 -0.30000 2.16000 # H
242 8 9.35000 2.36000 4.80000 # O
243 1 8.87000 2.77000 4.02000 # H
244 1 10.34000 2.34000 4.61000 # H
245 8 10.76000 6.83000 14.64000 # O
246 1 9.96000 6.22000 14.67000 # H
247 1 11.57000 6.30000 14.40000 # H
248 8 12.27000 15.70000 7.93000 # O
249 1 12.48000 16.44000 7.28000 # H
250 1 12.95000 15.70000 8.66000 # H
251 8 4.59000 11.52000 7.41000 # O
252 1 3.88000 11.25000 8.06000 # H
253 1 4.33000 11.24000 6.48000 # H
254 8 12.71000 17.97000 5.91000 # O
255 1 13.15000 18.61000 5.27000 # H
256 1 12.21000 18.49000 6.61000 # H
257 8 10.32000 5.49000 0.16000 # O
258 1 9.91000 6.31000 -0.23000 # H
259 1 10.96000 5.75000 0.89000 # H
260 8 0.78000 5.56000 13.86000 # O
261 1 1.70000 5.55000 13.45000 # H
262 1 0.72000 6.30000 14.53000 # H
263 8 5.61000 2.22000 11.47000 # O
264 1 5.99000 1.38000 11.84000 # H
265 1 4.73000 2.41000 11.91000 # H
266 8 8.66000 4.54000 6.42000 # O
267 1 8.34000 5.26000 5.80000 # H
268 1 8.90000 3.73000 5.89000 # H
269 8 10.17000 0.39000 7.53000 # O
270 1 9.45000 0.44000 6.84000 # H
271 1 9.93000 -0.30000 8.22000 # H
272 8 14.29000 11.73000 8.67000 # O
273 1 13.74000 10.89000 8.60000 # H
274 1 14.55000 12.02000 7.75000 # H
275 8 14.66000 5.90000 9.92000 # O
276 1 14.36000 4.95000 9.99000 # H
277 1 15.39000 6.06000 10.58000 # H
278 8 18.57000 8.33000 3.77000 # O
279 1 18.99000 7.69000 4.41000 # H
280 1 18.19000 7.82000 2.99000 # H
281 8 4.88000 13.85000 1.74000 # O
282 1 4.01000 13.70000 2.21000 # H
283 1 4.71000 14.11000 0.79000 # H
284 8 16.64000 12.80000 6.57000 # O
285 1 17.63000 12.88000 6.71000 # H
286 1 16.19000 13.64000 6.88000 # H
287 8 13.90000 5.75000 0.78000 # O
288 1 13.36000 5.54000 1.59000 # H
289 1 14.81000 5.34000 0.87000 # H
290 8 5.27000 2.56000 3.28000 # O
291 1 5.54000 1.97000 2.53000 # H
292 1 5.27000 3.51000 2.97000 # H
293 8 17.54000 12.23000 15.88000 # O
294 1 18.45000 11.84000 15.75000 # H
295 1 17.62000 13.19000 16.12000 # H
296 8 15.92000 16.29000 16.25000 # O
297 1 16.19000 16.63000 15.35000 # H
298 1 16.71000 15.91000 16.71000 # H
299 8 11.11000 11.95000 11.00000 # O
300 1 10.71000 12.39000 11.81000 # H
301 1 10.70000 12.32000 10.17000 # H
302 8 9.15000 0.89000 14.02000 # O
303 1 9.40000 0.69000 13.07000 # H
304 1 9.87000 1.45000 14.44000 # H
305 8 9.80000 11.16000 17.19000 # O
306 1 8.81000 11.22000 17.29000 # H
307 1 10.03000 10.36000 16.63000 # H
308 8 7.05000 10.50000 3.68000 # O
309 1 6.91000 10.57000 4.67000 # H
310 1 7.89000 9.99000 3.50000 # H
311 8 4.10000 8.13000 12.51000 # O
312 1 4.96000 8.25000 13.01000 # H
313 1 3.68000 7.26000 12.78000 # H
314 8 12.74000 3.86000 12.62000 # O
315 1 12.95000 4.60000 13.26000 # H
316 1 11.85000 4.03000 12.19000 # H
317 8 0.64000 15.64000 13.31000 # O
318 1 0.18000 16.46000 12.97000 # H
319 1 1.62000 15.83000 13.40000 # H
320 8 3.67000 11.00000 5.01000 # O
321 1 3.60000 11.83000 4.45000 # H
322 1 3.71000 10.20000 4.41000 # H
323 8 5.66000 5.37000 8.65000 # O
324 1 5.78000 6.03000 7.91000 # H
325 1 6.12000 5.71000 9.48000 # H
326 8 12.52000 13.48000 3.88000 # O
327 1 13.02000 14.25000 4.28000 # H
328 1 11.57000 13.50000 4.20000 # H
329 8 15.82000 6.39000 4.72000 # O
330 1 15.51000 7.00000 5.45000 # H
331 1 16.32000 6.91000 4.03000 # H
332 8 3.54000 15.10000 13.29000 # O
333 1 3.33000 14.66000 12.42000 # H
334 1 4.51000 15.36000 13.32000 # H
335 8 4.02000 7.51000 15.98000 # O
336 1 4.70000 8.06000 15.51000 # H
337 1 4.42000 6.63000 16.25000 # H
338 8 15.87000 7.79000 16.70000 # O
339 1 14.95000 8.17000 16.65000 # H
340 1 16.47000 8.26000 16.05000 # H
341 8 10.13000 1.05000 17.70000 # O
342 1 10.19000 1.90000 17.18000 # H
343 1 10.45000 0.29000 17.13000 # H
344 8 5.04000 0.50000 17.40000 # O
345 1 4.62000 -0.07000 16.70000 # H
346 1 4.38000 1.19000 17.72000 # H
347 8 5.73000 8.70000 10.29000 # O
348 1 6.17000 9.59000 10.20000 # H
349 1 5.10000 8.70000 11.06000 # H
350 8 13.60000 8.62000 10.45000 # O
351 1 12.85000 8.62000 9.79000 # H
352 1 13.97000 7.70000 10.54000 # H
353 8 12.09000 5.25000 2.75000 # O
354 1 12.22000 4.41000 3.29000 # H
355 1 11.80000 5.99000 3.35000 # H
356 8 3.07000 2.13000 12.31000 # O
357 1 2.84000 2.50000 13.21000 # H
358 1 2.77000 1.18000 12.25000 # H
359 8 0.37000 13.10000 12.82000 # O
360 1 0.90000 12.61000 13.50000 # H
361 1 0.59000 14.08000 12.87000 # H
362 8 7.32000 6.34000 10.64000 # O
363 1 7.91000 6.08000 9.88000 # H
364 1 7.04000 7.30000 10.53000 # H
365 8 17.28000 9.35000 18.54000 # O
366 1 16.82000 9.28000 17.65000 # H
367 1 16.66000 9.79000 19.20000 # H
368 8 3.07000 0.63000 6.18000 # O
369 1 2.96000 1.57000 6.51000 # H
370 1 3.02000 0.00000 6.95000 # H
371 8 16.22000 3.67000 3.74000 # O
372 1 16.24000 2.91000 4.38000 # H
373 1 15.74000 4.44000 4.14000 # H
374 8 10.23000 7.66000 9.66000 # O
375 1 10.38000 7.87000 10.62000 # H
376 1 9.93000 6.71000 9.57000 # H
377 8 9.80000 15.73000 17.00000 # O
378 1 9.60000 16.17000 16.12000 # H
379 1 10.19000 14.82000 16.84000 # H
380 8 18.59000 15.18000 16.05000 # O
381 1 18.73000 15.45000 15.10000 # H
382 1 19.42000 15.40000 16.58000 # H
383 8 3.50000 8.98000 18.04000 # O
384 1 4.26000 9.42000 18.52000 # H
385 1 3.85000 8.51000 17.22000 # H
386 8 15.40000 2.74000 1.25000 # O
387 1 14.79000 1.99000 1.48000 # H
388 1 15.62000 3.26000 2.08000 # H
389 8 13.03000 8.38000 0.42000 # O
390 1 13.37000 7.45000 0.57000 # H
391 1 13.21000 8.65000 -0.53000 # H
392 8 10.68000 13.33000 8.49000 # O
393 1 10.75000 12.49000 7.94000 # H
394 1 11.30000 14.02000 8.13000 # H
395 8 3.19000 8.10000 9.49000 # O
396 1 4.12000 8.46000 9.54000 # H
397 1 3.13000 7.25000 10.01000 # H
398 8 3.39000 5.09000 10.06000 # O
399 1 2.87000 4.26000 9.89000 # H
400 1 4.16000 5.14000 9.42000 # H
401 8 11.38000 3.80000 16.78000 # O
402 1 10.93000 4.43000 17.42000 # H
403 1 12.31000 4.11000 16.61000 # H
404 8 11.60000 2.07000 14.77000 # O
405 1 11.60000 2.71000 15.54000 # H
406 1 11.88000 2.55000 13.94000 # H
407 8 0.08000 13.26000 2.00000 # O
408 1 -0.85000 13.47000 1.69000 # H
409 1 0.18000 12.27000 2.13000 # H
410 8 0.88000 18.01000 9.27000 # O
411 1 0.46000 17.15000 9.00000 # H
412 1 1.82000 18.04000 8.93000 # H
413 8 5.04000 15.68000 9.10000 # O
414 1 5.70000 16.42000 9.19000 # H
415 1 5.48000 14.89000 8.68000 # H
416 8 10.02000 7.96000 12.38000 # O
417 1 10.43000 7.64000 13.24000 # H
418 1 9.06000 7.69000 12.35000 # H
419 8 0.40000 5.44000 11.14000 # O
420 1 1.25000 5.11000 10.73000 # H
421 1 0.53000 5.59000 12.12000 # H
422 8 1.89000 5.20000 17.22000 # O
423 1 2.48000 4.80000 16.52000 # H
424 1 1.31000 5.91000 16.81000 # H
425 8 13.69000 9.50000 16.60000 # O
426 1 14.08000 10.39000 16.80000 # H
427 1 13.79000 9.30000 15.63000 # H
428 8 8.15000 5.72000 3.25000 # O
429 1 8.22000 4.83000 2.79000 # H
430 1 7.21000 6.06000 3.17000 # H
431 8 16.57000 6.04000 12.06000 # O
432 1 16.19000 5.35000 12.68000 # H
433 1 17.39000 5.68000 11.62000 # H
434 8 2.52000 15.64000 17.44000 # O
435 1 2.22000 16.21000 18.20000 # H
436 1 2.45000 14.67000 17.70000 # H
437 8 6.71000 4.64000 12.69000 # O
438 1 6.37000 3.75000 12.39000 # H
439 1 6.97000 5.18000 11.89000 # H
440 8 4.73000 5.00000 1.91000 # O
441 1 5.34000 5.80000 1.95000 # H
442 1 3.78000 5.31000 1.98000 # H
443 8 1.59000 11.37000 14.66000 # O
444 1 1.81000 10.76000 15.42000 # H
445 1 1.69000 10.88000 13.80000 # H
446 8 13.47000 10.59000 12.34000 # O
447 1 13.71000 9.96000 11.60000 # H
448 1 12.57000 10.99000 12.16000 # H
449 8 13.02000 8.55000 3.09000 # O
450 1 12.16000 8.24000 3.51000 # H
451 1 12.98000 8.41000 2.10000 # H
452 8 17.59000 17.47000 11.54000 # O
453 1 18.20000 17.77000 10.81000 # H
454 1 17.21000 16.58000 11.32000 # H
455 8 12.52000 17.31000 11.28000 # O
456 1 13.36000 17.36000 10.74000 # H
457 1 12.29000 16.35000 11.46000 # H
458 8 0.83000 12.58000 10.22000 # O
459 1 0.78000 12.57000 11.22000 # H
460 1 0.00000 12.17000 9.84000 # H
461 8 6.88000 16.62000 17.16000 # O
462 1 6.32000 17.43000 17.25000 # H
463 1 7.40000 16.66000 16.30000 # H
464 8 9.03000 0.86000 1.33000 # O
465 1 9.54000 0.87000 0.47000 # H
466 1 9.59000 0.44000 2.04000 # H
467 8 17.26000 1.35000 5.23000 # O
468 1 17.99000 1.18000 4.56000 # H
469 1 16.95000 0.48000 5.61000 # H
470 8 13.88000 15.73000 4.77000 # O
471 1 14.55000 15.85000 4.03000 # H
472 1 13.48000 16.62000 5.00000 # H
473 8 1.30000 17.94000 18.51000 # O
474 1 0.89000 17.20000 19.04000 # H
475 1 1.94000 18.45000 19.09000 # H
476 8 12.80000 9.27000 6.72000 # O
477 1 13.40000 8.46000 6.74000 # H
478 1 13.20000 9.96000 6.12000 # H
479 8 8.30000 12.73000 14.22000 # O
480 1 8.25000 13.06000 15.17000 # H
481 1 7.44000 12.92000 13.76000 # H
482 8 6.72000 16.16000 1.54000 # O
483 1 6.81000 16.26000 0.55000 # H
484 1 6.32000 15.27000 1.75000 # H
485 8 16.50000 17.20000 13.94000 # O
486 1 17.03000 17.30000 13.10000 # H
487 1 16.23000 18.10000 14.28000 # H
488 8 18.41000 1.75000 9.63000 # O
489 1 18.80000 0.90000 9.27000 # H
490 1 17.43000 1.77000 9.44000 # H
491 8 2.63000 3.26000 7.20000 # O
492 1 1.84000 3.77000 6.86000 # H
493 1 2.54000 3.11000 8.18000 # H
494 8 11.94000 16.12000 0.31000 # O
495 1 12.00000 15.19000 0.68000 # H
496 1 11.35000 16.12000 -0.49000 # H
497 8 8.22000 10.02000 13.72000 # O
498 1 8.62000 10.01000 12.80000 # H
499 1 8.32000 10.94000 14.12000 # H
500 8 9.16000 9.10000 2.91000 # O
501 1 9.79000 9.48000 2.23000 # H
502 1 9.56000 8.27000 3.30000 # H
503 8 15.04000 16.07000 0.44000 # O
504 1 14.12000 16.44000 0.51000 # H
505 1 15.42000 16.27000 -0.46000 # H
506 8 3.72000 12.88000 14.90000 # O
507 1 3.59000 13.81000 14.56000 # H
508 1 2.88000 12.36000 14.77000 # H
509 8 10.39000 10.98000 6.96000 # O
510 1 9.69000 10.51000 7.50000 # H
511 1 10.98000 10.30000 6.53000 # H
512 8 10.14000 2.36000 9.71000 # O
513 1 10.06000 2.00000 8.78000 # H
514 1 10.12000 1.60000 10.36000 # H
515 8 5.90000 14.87000 4.91000 # O
516 1 6.32000 14.29000 4.21000 # H
517 1 5.46000 15.66000 4.47000 # H
518 8 17.09000 3.85000 13.81000 # O
519 1 17.82000 4.54000 13.85000 # H
520 1 17.37000 3.10000 13.22000 # H
521 8 2.55000 13.48000 2.90000 # O
522 1 1.59000 13.49000 2.63000 # H
523 1 2.67000 14.01000 3.74000 # H
524 8 1.05000 10.13000 17.26000 # O
525 1 0.28000 9.80000 17.80000 # H
526 1 1.90000 9.83000 17.68000 # H
527 8 6.72000 2.03000 14.89000 # O
528 1 7.62000 1.87000 14.49000 # H
529 1 6.80000 2.08000 15.88000 # H
530 8 0.75000 3.45000 0.33000 # O
531 1 -0.17000 3.17000 0.04000 # H
532 1 1.06000 4.22000 -0.23000 # H
533 8 14.40000 8.56000 13.98000 # O
534 1 13.83000 9.08000 13.35000 # H
535 1 15.36000 8.68000 13.74000 # H
536 8 0.72000 1.66000 3.18000 # O
537 1 0.55000 2.49000 2.64000 # H
538 1 1.62000 1.29000 2.96000 # H
539 8 11.83000 13.35000 1.19000 # O
540 1 10.84000 13.24000 1.21000 # H
541 1 12.17000 13.50000 2.12000 # H
542 8 6.13000 8.42000 14.31000 # O
543 1 6.69000 9.23000 14.14000 # H
544 1 6.72000 7.62000 14.34000 # H
545 8 14.93000 17.67000 9.59000 # O
546 1 15.26000 18.31000 8.90000 # H
547 1 15.59000 17.61000 10.34000 # H
548 8 7.16000 5.65000 17.08000 # O
549 1 7.35000 6.30000 17.82000 # H
550 1 7.76000 4.85000 17.17000 # H
551 8 14.50000 12.20000 16.33000 # O
552 1 14.41000 12.10000 17.32000 # H
553 1 15.46000 12.13000 16.07000 # H
554 8 3.90000 17.41000 15.60000 # O
555 1 2.99000 17.82000 15.58000 # H
556 1 3.83000 16.47000 15.92000 # H
557 8 12.25000 3.25000 4.49000 # O
558 1 12.90000 2.51000 4.38000 # H
559 1 12.45000 3.75000 5.33000 # H
560 8 5.94000 7.45000 6.52000 # O
561 1 6.44000 8.30000 6.33000 # H
562 1 5.06000 7.47000 6.04000 # H
563 8 17.77000 3.42000 16.42000 # O
564 1 17.60000 3.73000 15.48000 # H
565 1 16.93000 3.05000 16.80000 # H
566 8 17.30000 9.34000 15.17000 # O
567 1 17.68000 10.25000 15.32000 # H
568 1 17.22000 9.17000 14.18000 # H
569 8 8.59000 13.74000 0.16000 # O
570 1 8.13000 13.89000 1.04000 # H
571 1 9.03000 14.59000 -0.14000 # H
572 8 6.61000 17.90000 9.53000 # O
573 1 6.15000 18.78000 9.40000 # H
574 1 7.60000 18.02000 9.46000 # H
575 8 8.59000 9.56000 8.61000 # O
576 1 9.13000 8.87000 9.09000 # H
577 1 8.27000 10.25000 9.27000 # H
578 8 10.83000 9.84000 0.87000 # O
579 1 10.60000 10.37000 0.05000 # H
580 1 11.64000 9.28000 0.68000 # H
581 8 18.61000 15.69000 8.51000 # O
582 1 17.90000 15.57000 7.81000 # H
583 1 18.62000 14.90000 9.11000 # H
584 8 2.21000 13.14000 18.44000 # O
585 1 1.56000 12.41000 18.23000 # H
586 1 2.25000 13.28000 19.42000 # H
587 8 0.79000 12.40000 6.53000 # O
588 1 0.78000 11.93000 7.41000 # H
589 1 1.61000 12.12000 6.02000 # H
590 8 6.72000 13.91000 16.24000 # O
591 1 5.94000 13.41000 16.62000 # H
592 1 6.69000 14.86000 16.55000 # H
593 8 18.24000 1.92000 12.27000 # O
594 1 18.20000 1.02000 12.71000 # H
595 1 18.27000 1.81000 11.28000 # H
596 8 4.28000 4.24000 5.20000 # O
597 1 4.58000 3.52000 4.58000 # H
598 1 3.89000 3.84000 6.03000 # H
599 8 17.05000 14.87000 11.04000 # O
600 1 16.12000 14.62000 10.77000 # H
601 1 17.31000 14.37000 11.86000 # H
602 8 3.17000 5.47000 12.80000 # O
603 1 3.55000 4.88000 13.52000 # H
604 1 3.57000 5.21000 11.92000 # H
605 8 8.12000 15.86000 6.87000 # O
606 1 8.44000 15.96000 5.93000 # H
607 1 7.33000 15.24000 6.89000 # H
608 8 14.24000 2.14000 11.12000 # O
609 1 14.76000 1.49000 11.67000 # H
610 1 13.75000 2.77000 11.73000 # H
611 8 10.01000 0.34000 11.54000 # O
612 1 9.38000 -0.38000 11.23000 # H
613 1 10.94000 -0.02000 11.54000 # H
614 8 7.70000 13.30000 3.01000 # O
615 1 7.24000 12.43000 3.18000 # H
616 1 8.61000 13.27000 3.42000 # H
617 8 6.18000 15.67000 12.84000 # O
618 1 6.13000 16.49000 13.41000 # H
619 1 7.07000 15.64000 12.39000 # H
620 8 13.52000 0.52000 1.68000 # O
621 1 13.87000 0.11000 0.84000 # H
622 1 12.62000 0.14000 1.88000 # H
623 8 13.00000 4.53000 6.91000 # O
624 1 12.41000 5.33000 6.95000 # H
625 1 13.15000 4.18000 7.84000 # H
626 8 15.93000 2.21000 8.82000 # O
627 1 15.09000 2.20000 9.36000 # H
628 1 15.95000 3.04000 8.26000 # H
629 8 0.39000 10.77000 3.00000 # O
630 1 1.38000 10.66000 2.91000 # H
631 1 -0.01000 9.91000 3.32000 # H
632 8 8.75000 16.46000 3.37000 # O
633 1 7.98000 16.11000 2.83000 # H
634 1 8.43000 17.17000 3.99000 # H
635 8 2.30000 6.28000 19.75000 # O
636 1 1.37000 6.26000 20.12000 # H
637 1 2.31000 5.89000 18.83000 # H
638 8 2.25000 2.75000 28.58000 # O
639 1 2.60000 2.58000 29.50000 # H
640 1 1.37000 2.30000 28.46000 # H
641 8 0.19000 3.68000 25.09000 # O
642 1 -0.63000 4.11000 25.48000 # H
643 1 -0.09000 2.95000 24.46000 # H
644 8 17.55000 6.07000 20.93000 # O
645 1 17.43000 5.94000 19.94000 # H
646 1 17.25000 5.26000 21.42000 # H
647 8 6.85000 10.12000 25.27000 # O
648 1 7.54000 9.96000 25.97000 # H
649 1 6.12000 10.69000 25.65000 # H
650 8 16.03000 4.47000 25.99000 # O
651 1 15.29000 4.93000 25.49000 # H
652 1 16.54000 5.15000 26.52000 # H
653 8 2.31000 17.13000 23.45000 # O
654 1 2.65000 17.90000 23.99000 # H
655 1 2.75000 17.13000 22.55000 # H
656 8 2.30000 14.34000 24.00000 # O
657 1 2.04000 15.30000 24.00000 # H
658 1 1.59000 13.80000 24.45000 # H
659 8 2.40000 10.91000 27.48000 # O
660 1 2.54000 10.07000 28.00000 # H
661 1 1.85000 11.55000 28.03000 # H
662 8 6.06000 9.64000 19.85000 # O
663 1 6.13000 10.48000 19.31000 # H
664 1 6.52000 9.77000 20.73000 # H
665 8 1.22000 6.43000 24.25000 # O
666 1 0.77000 5.55000 24.42000 # H
667 1 1.21000 6.97000 25.09000 # H
668 8 18.42000 17.67000 22.21000 # O
669 1 18.96000 17.38000 23.01000 # H
670 1 18.72000 18.57000 21.92000 # H
671 8 0.27000 15.96000 19.79000 # O
672 1 0.08000 15.00000 20.00000 # H
673 1 -0.06000 16.54000 20.54000 # H
674 8 16.89000 9.22000 24.74000 # O
675 1 17.84000 8.93000 24.82000 # H
676 1 16.81000 9.87000 23.99000 # H
677 8 16.41000 11.08000 22.94000 # O
678 1 17.27000 11.10000 22.42000 # H
679 1 16.55000 11.55000 23.82000 # H
680 8 6.13000 13.65000 25.88000 # O
681 1 5.64000 12.78000 25.97000 # H
682 1 5.90000 14.08000 25.01000 # H
683 8 8.09000 0.04000 23.64000 # O
684 1 8.49000 0.95000 23.55000 # H
685 1 7.09000 0.12000 23.70000 # H
686 8 15.25000 9.99000 20.52000 # O
687 1 14.62000 9.23000 20.65000 # H
688 1 15.73000 10.17000 21.38000 # H
689 8 16.67000 17.14000 24.34000 # O
690 1 16.26000 16.91000 23.46000 # H
691 1 16.49000 16.40000 24.99000 # H
692 8 5.98000 7.29000 21.32000 # O
693 1 6.22000 7.98000 20.64000 # H
694 1 5.20000 7.62000 21.86000 # H
695 8 12.81000 3.45000 28.06000 # O
696 1 11.95000 2.95000 27.93000 # H
697 1 13.43000 2.91000 28.62000 # H
698 8 15.76000 16.62000 21.69000 # O
699 1 16.65000 17.08000 21.72000 # H
700 1 15.55000 16.38000 20.74000 # H
701 8 10.41000 7.01000 22.91000 # O
702 1 10.67000 6.97000 23.87000 # H
703 1 9.56000 6.50000 22.77000 # H
704 8 0.76000 8.11000 26.51000 # O
705 1 1.75000 7.99000 26.60000 # H
706 1 0.52000 9.06000 26.72000 # H
707 8 8.65000 3.48000 20.57000 # O
708 1 9.24000 4.11000 20.08000 # H
709 1 8.84000 2.54000 20.28000 # H
710 8 13.62000 11.44000 24.07000 # O
711 1 14.45000 11.15000 23.59000 # H
712 1 13.13000 12.11000 23.51000 # H
713 8 10.08000 14.56000 23.39000 # O
714 1 9.62000 15.28000 22.87000 # H
715 1 10.04000 14.76000 24.37000 # H
716 8 3.51000 18.01000 27.15000 # O
717 1 4.01000 17.15000 27.21000 # H
718 1 4.16000 18.78000 27.12000 # H
719 8 17.95000 10.66000 27.35000 # O
720 1 17.33000 10.51000 26.59000 # H
721 1 17.43000 10.77000 28.20000 # H
722 8 3.21000 9.43000 21.04000 # O
723 1 4.03000 9.82000 20.62000 # H
724 1 2.94000 8.61000 20.55000 # H
725 8 14.58000 7.35000 25.90000 # O
726 1 14.53000 6.70000 26.65000 # H
727 1 15.38000 7.94000 26.03000 # H
728 8 11.11000 17.76000 20.99000 # O
729 1 10.51000 17.14000 21.49000 # H
730 1 11.42000 17.32000 20.14000 # H
731 8 16.32000 13.77000 19.43000 # O
732 1 16.00000 14.71000 19.33000 # H
733 1 15.56000 13.14000 19.31000 # H
734 8 4.64000 17.43000 21.85000 # O
735 1 4.97000 17.82000 22.71000 # H
736 1 5.40000 17.36000 21.20000 # H
737 8 14.00000 1.07000 22.88000 # O
738 1 13.76000 0.70000 21.98000 # H
739 1 14.99000 1.23000 22.92000 # H
740 8 9.40000 16.98000 27.66000 # O
741 1 10.20000 16.41000 27.87000 # H
742 1 8.91000 16.58000 26.89000 # H
743 8 3.82000 7.00000 23.42000 # O
744 1 4.27000 6.10000 23.39000 # H
745 1 2.88000 6.89000 23.75000 # H
746 8 6.14000 1.22000 19.79000 # O
747 1 7.12000 1.00000 19.86000 # H
748 1 5.83000 1.05000 18.86000 # H
749 8 5.39000 0.64000 23.74000 # O
750 1 4.58000 0.65000 24.32000 # H
751 1 5.42000 1.47000 23.19000 # H
752 8 14.34000 11.88000 19.03000 # O
753 1 14.66000 11.12000 19.60000 # H
754 1 13.42000 12.15000 19.33000 # H
755 8 2.97000 0.35000 20.33000 # O
756 1 3.46000 1.19000 20.12000 # H
757 1 3.59000 -0.30000 20.78000 # H
758 8 9.35000 2.36000 23.42000 # O
759 1 8.87000 2.77000 22.64000 # H
760 1 10.34000 2.34000 23.23000 # H
761 8 4.59000 11.52000 26.03000 # O
762 1 3.88000 11.25000 26.68000 # H
763 1 4.33000 11.24000 25.10000 # H
764 8 12.71000 17.97000 24.53000 # O
765 1 13.15000 18.61000 23.89000 # H
766 1 12.21000 18.49000 25.23000 # H
767 8 10.32000 5.49000 18.78000 # O
768 1 9.91000 6.31000 18.39000 # H
769 1 10.96000 5.75000 19.51000 # H
770 8 8.66000 4.54000 25.04000 # O
771 1 8.34000 5.26000 24.42000 # H
772 1 8.90000 3.73000 24.51000 # H
773 8 18.57000 8.33000 22.39000 # O
774 1 18.99000 7.69000 23.03000 # H
775 1 18.19000 7.82000 21.61000 # H
776 8 4.88000 13.85000 20.36000 # O
777 1 4.01000 13.70000 20.83000 # H
778 1 4.71000 14.11000 19.41000 # H
779 8 16.64000 12.80000 25.19000 # O
780 1 17.63000 12.88000 25.33000 # H
781 1 16.19000 13.64000 25.50000 # H
782 8 13.90000 5.75000 19.40000 # O
783 1 13.36000 5.54000 20.21000 # H
784 1 14.81000 5.34000 19.49000 # H
785 8 5.27000 2.56000 21.90000 # O
786 1 5.54000 1.97000 21.15000 # H
787 1 5.27000 3.51000 21.59000 # H
788 8 7.05000 10.50000 22.30000 # O
789 1 6.91000 10.57000 23.29000 # H
790 1 7.89000 9.99000 22.12000 # H
791 8 3.67000 11.00000 23.63000 # O
792 1 3.60000 11.83000 23.07000 # H
793 1 3.71000 10.20000 23.03000 # H
794 8 12.52000 13.48000 22.50000 # O
795 1 13.02000 14.25000 22.90000 # H
796 1 11.57000 13.50000 22.82000 # H
797 8 15.82000 6.39000 23.34000 # O
798 1 15.51000 7.00000 24.07000 # H
799 1 16.32000 6.91000 22.65000 # H
800 8 12.09000 5.25000 21.37000 # O
801 1 12.22000 4.41000 21.91000 # H
802 1 11.80000 5.99000 21.97000 # H
803 8 3.07000 0.63000 24.80000 # O
804 1 2.96000 1.57000 25.13000 # H
805 1 3.02000 0.00000 25.57000 # H
806 8 16.22000 3.67000 22.36000 # O
807 1 16.24000 2.91000 23.00000 # H
808 1 15.74000 4.44000 22.76000 # H
809 8 10.23000 7.66000 28.28000 # O
810 1 10.38000 7.87000 29.24000 # H
811 1 9.93000 6.71000 28.19000 # H
812 8 15.40000 2.74000 19.87000 # O
813 1 14.79000 1.99000 20.10000 # H
814 1 15.62000 3.26000 20.70000 # H
815 8 13.03000 8.38000 19.04000 # O
816 1 13.37000 7.45000 19.19000 # H
817 1 13.21000 8.65000 18.09000 # H
818 8 0.08000 13.26000 20.62000 # O
819 1 -0.85000 13.47000 20.31000 # H
820 1 0.18000 12.27000 20.75000 # H
821 8 0.40000 5.44000 29.76000 # O
822 1 1.25000 5.11000 29.35000 # H
823 1 0.53000 5.59000 30.74000 # H
824 8 8.15000 5.72000 21.87000 # O
825 1 8.22000 4.83000 21.41000 # H
826 1 7.21000 6.06000 21.79000 # H
827 8 4.73000 5.00000 20.53000 # O
828 1 5.34000 5.80000 20.57000 # H
829 1 3.78000 5.31000 20.60000 # H
830 8 13.02000 8.55000 21.71000 # O
831 1 12.16000 8.24000 22.13000 # H
832 1 12.98000 8.41000 20.72000 # H
833 8 17.26000 1.35000 23.85000 # O
834 1 17.99000 1.18000 23.18000 # H
835 1 16.95000 0.48000 24.23000 # H
836 8 13.88000 15.73000 23.39000 # O
837 1 14.55000 15.85000 22.65000 # H
838 1 13.48000 16.62000 23.62000 # H
839 8 6.72000 16.16000 20.16000 # O