LAMMPS data file generated by OpenBabel

50866 atoms
8 atom types
  -1.35000   84.22000 xlo xhi
  -1.35000   84.22000 ylo yhi
  -1.35000   84.22000 zlo zhi

Atoms

1 7 35.89000 34.23000 38.70000 # N
2 1 36.46000 33.74000 38.05000 # H
3 1 36.25000 34.10000 39.63000 # H
4 1 34.95000 33.89000 38.65000 # H
5 6 35.91000 35.68000 38.38000 # C
6 1 35.58000 35.74000 37.43000 # H
7 6 34.98000 36.39000 39.46000 # C
8 1 35.51000 36.58000 40.28000 # H
9 1 34.21000 35.79000 39.68000 # H
10 6 34.41000 37.72000 38.94000 # C
11 6 34.50000 38.88000 39.74000 # C
12 1 35.11000 38.89000 40.53000 # H
13 6 33.73000 40.03000 39.43000 # C
14 1 33.81000 40.88000 39.95000 # H
15 6 32.84000 39.91000 38.33000 # C
16 8 31.74000 40.84000 38.30000 # O
17 1 31.18000 40.67000 37.50000 # H
18 6 32.76000 38.81000 37.47000 # C
19 1 32.15000 38.79000 36.68000 # H
20 6 33.61000 37.75000 37.80000 # C
21 1 33.64000 36.97000 37.18000 # H
22 6 37.36000 36.31000 38.45000 # C
23 8 38.19000 35.85000 39.27000 # O
24 7 37.66000 37.34000 37.67000 # N
25 1 37.02000 37.60000 36.95000 # H
26 6 38.87000 38.11000 37.84000 # C
27 1 39.31000 37.81000 38.69000 # H
28 6 39.69000 37.89000 36.56000 # C
29 1 39.16000 38.24000 35.79000 # H
30 1 39.83000 36.91000 36.45000 # H
31 6 41.03000 38.48000 36.39000 # C
32 6 41.82000 38.47000 37.53000 # C
33 1 41.50000 38.03000 38.37000 # H
34 6 43.05000 39.06000 37.50000 # C
35 1 43.58000 39.12000 38.35000 # H
36 6 43.57000 39.57000 36.33000 # C
37 8 44.79000 40.22000 36.35000 # O
38 1 45.02000 40.53000 35.42000 # H
39 6 42.82000 39.52000 35.17000 # C
40 1 43.21000 39.89000 34.32000 # H
41 6 41.54000 38.97000 35.16000 # C
42 1 41.00000 38.93000 34.32000 # H
43 6 38.60000 39.51000 38.06000 # C
44 8 37.80000 40.00000 37.28000 # O
45 7 39.17000 40.18000 39.09000 # N
46 1 39.64000 39.66000 39.80000 # H
47 6 39.10000 41.64000 39.21000 # C
48 1 38.40000 41.80000 38.52000 # H
49 6 38.64000 42.16000 40.63000 # C
50 1 39.27000 41.86000 41.34000 # H
51 1 37.72000 41.83000 40.85000 # H
52 6 38.60000 43.61000 40.65000 # C
53 8 37.76000 44.22000 39.92000 # O
54 8 39.30000 44.19000 41.46000 # O
55 6 40.34000 42.38000 38.74000 # C
56 8 41.27000 42.52000 39.61000 # O
57 7 40.63000 42.81000 37.54000 # N
58 6 39.76000 42.40000 36.36000 # C
59 1 38.81000 42.71000 36.46000 # H
60 1 39.77000 41.41000 36.19000 # H
61 6 40.48000 43.17000 35.27000 # C
62 1 40.10000 44.09000 35.20000 # H
63 1 40.37000 42.69000 34.39000 # H
64 6 42.00000 43.22000 35.67000 # C
65 1 42.41000 44.08000 35.39000 # H
66 1 42.50000 42.46000 35.26000 # H
67 6 42.04000 43.09000 37.18000 # C
68 1 42.65000 42.37000 37.50000 # H
69 6 42.57000 44.36000 37.85000 # C
70 8 43.78000 44.52000 37.87000 # O
71 7 41.67000 45.19000 38.37000 # N
72 1 40.70000 44.98000 38.23000 # H
73 6 42.02000 46.33000 39.12000 # C
74 1 42.72000 46.78000 38.56000 # H
75 6 40.72000 47.13000 39.32000 # C
76 1 40.11000 46.61000 39.92000 # H
77 1 40.27000 47.27000 38.44000 # H
78 6 41.03000 48.51000 39.97000 # C
79 1 41.62000 48.35000 40.76000 # H
80 1 40.16000 48.91000 40.27000 # H
81 6 41.75000 49.56000 39.01000 # C
82 8 42.72000 50.35000 39.49000 # O
83 8 41.36000 49.62000 37.83000 # O
84 6 42.68000 46.06000 40.43000 # C
85 8 43.86000 46.32000 40.59000 # O
86 7 41.98000 45.44000 41.43000 # N
87 1 40.98000 45.43000 41.39000 # H
88 6 42.65000 44.82000 42.55000 # C
89 1 43.22000 45.63000 42.68000 # H
90 6 41.68000 44.37000 43.74000 # C
91 1 42.17000 44.02000 44.53000 # H
92 6 40.75000 45.53000 44.07000 # C
93 1 40.14000 45.26000 44.81000 # H
94 1 41.29000 46.32000 44.35000 # H
95 1 40.21000 45.76000 43.26000 # H
96 8 40.83000 43.32000 43.33000 # O
97 1 40.23000 43.06000 44.09000 # H
98 6 43.60000 43.66000 42.31000 # C
99 8 44.59000 43.54000 43.02000 # O
100 7 43.41000 42.90000 41.23000 # N
101 1 42.57000 43.03000 40.70000 # H
102 6 44.36000 41.86000 40.75000 # C
103 1 45.27000 42.07000 41.09000 # H
104 1 44.37000 41.86000 39.75000 # H
105 6 43.91000 40.52000 41.26000 # C
106 8 44.58000 39.55000 41.02000 # O
107 7 42.75000 40.45000 41.90000 # N
108 1 42.15000 41.24000 41.82000 # H
109 6 42.28000 39.34000 42.72000 # C
110 1 43.12000 38.93000 43.08000 # H
111 6 41.34000 39.80000 43.88000 # C
112 1 40.55000 40.27000 43.49000 # H
113 6 40.83000 38.69000 44.79000 # C
114 1 40.24000 39.08000 45.50000 # H
115 1 40.30000 38.03000 44.25000 # H
116 1 41.60000 38.23000 45.22000 # H
117 8 42.01000 40.73000 44.68000 # O
118 1 41.40000 41.02000 45.42000 # H
119 6 41.49000 38.39000 41.82000 # C
120 8 40.42000 38.73000 41.31000 # O
121 7 41.91000 37.09000 41.80000 # N
122 1 42.83000 36.91000 42.15000 # H
123 6 41.17000 35.93000 41.34000 # C
124 1 40.60000 36.16000 40.55000 # H
125 6 42.26000 34.91000 40.98000 # C
126 1 41.82000 34.03000 40.78000 # H
127 1 42.87000 34.81000 41.77000 # H
128 6 43.09000 35.34000 39.76000 # C
129 6 44.24000 36.10000 39.73000 # C
130 1 44.71000 36.48000 40.52000 # H
131 7 44.65000 36.26000 38.39000 # N
132 1 45.49000 36.69000 38.07000 # H
133 6 43.68000 35.73000 37.62000 # C
134 6 43.63000 35.70000 36.27000 # C
135 1 44.34000 36.13000 35.71000 # H
136 6 42.55000 35.05000 35.71000 # C
137 1 42.59000 34.87000 34.72000 # H
138 6 41.45000 34.63000 36.36000 # C
139 1 40.64000 34.29000 35.87000 # H
140 6 41.48000 34.69000 37.80000 # C
141 1 40.69000 34.41000 38.35000 # H
142 6 42.67000 35.18000 38.41000 # C
143 6 40.18000 35.47000 42.39000 # C
144 8 40.53000 35.15000 43.57000 # O
145 7 38.87000 35.45000 42.08000 # N
146 1 38.65000 35.62000 41.12000 # H
147 6 37.78000 35.24000 42.92000 # C
148 1 38.29000 35.24000 43.78000 # H
149 6 36.71000 36.38000 42.93000 # C
150 1 35.89000 36.04000 43.39000 # H
151 1 36.49000 36.61000 41.98000 # H
152 6 37.12000 37.68000 43.64000 # C
153 6 37.12000 37.62000 45.03000 # C
154 1 37.02000 36.73000 45.47000 # H
155 6 37.24000 38.75000 45.81000 # C
156 1 37.29000 38.66000 46.80000 # H
157 6 37.30000 40.00000 45.22000 # C
158 8 37.64000 41.13000 45.99000 # O
159 1 37.64000 41.94000 45.41000 # H
160 6 37.23000 40.12000 43.83000 # C
161 1 37.26000 41.02000 43.40000 # H
162 6 37.11000 38.92000 43.04000 # C
163 1 37.01000 38.99000 42.05000 # H
164 6 37.03000 33.87000 42.54000 # C
165 8 36.92000 33.06000 43.50000 # O
166 8 36.53000 33.68000 41.37000 # O
167 8 2.30000 6.28000 1.13000 # O
168 1 1.37000 6.26000 1.50000 # H
169 1 2.31000 5.89000 0.21000 # H
170 8 2.25000 2.75000 9.96000 # O
171 1 2.60000 2.58000 10.88000 # H
172 1 1.37000 2.30000 9.84000 # H
173 8 0.19000 3.68000 6.47000 # O
174 1 -0.63000 4.11000 6.86000 # H
175 1 -0.09000 2.95000 5.84000 # H
176 8 5.69000 12.75000 11.65000 # O
177 1 4.76000 12.68000 11.28000 # H
178 1 5.80000 13.64000 12.09000 # H
179 8 15.55000 15.11000 7.03000 # O
180 1 14.98000 14.95000 7.84000 # H
181 1 14.96000 15.21000 6.23000 # H
182 8 11.35000 7.03000 7.17000 # O
183 1 11.92000 7.81000 6.92000 # H
184 1 10.75000 7.29000 7.93000 # H
185 8 17.55000 6.07000 2.31000 # O
186 1 17.43000 5.94000 1.32000 # H
187 1 17.25000 5.26000 2.80000 # H
188 8 7.68000 11.44000 10.23000 # O
189 1 6.90000 11.61000 10.83000 # H
190 1 8.02000 12.31000 9.87000 # H
191 8 8.50000 7.98000 18.23000 # O
192 1 8.46000 8.74000 18.88000 # H
193 1 8.72000 8.34000 17.32000 # H
194 8 6.85000 10.12000 6.65000 # O
195 1 7.54000 9.96000 7.35000 # H
196 1 6.12000 10.69000 7.03000 # H
197 8 6.86000 11.61000 18.03000 # O
198 1 7.46000 12.40000 18.17000 # H
199 1 6.00000 11.92000 17.62000 # H
200 8 3.35000 14.35000 10.61000 # O
201 1 2.57000 14.04000 10.08000 # H
202 1 3.93000 14.93000 10.04000 # H
203 8 14.60000 15.05000 13.39000 # O
204 1 14.84000 15.99000 13.65000 # H
205 1 14.44000 14.51000 14.21000 # H
206 8 4.38000 3.92000 14.99000 # O
207 1 5.20000 3.36000 15.08000 # H
208 1 3.57000 3.34000 15.03000 # H
209 8 16.03000 4.47000 7.37000 # O
210 1 15.29000 4.93000 6.87000 # H
211 1 16.54000 5.15000 7.90000 # H
212 8 2.31000 17.13000 4.83000 # O
213 1 2.65000 17.90000 5.37000 # H
214 1 2.75000 17.13000 3.93000 # H
215 8 11.27000 13.41000 16.90000 # O
216 1 11.74000 13.41000 17.78000 # H
217 1 10.79000 12.54000 16.79000 # H
218 8 2.30000 14.34000 5.38000 # O
219 1 2.04000 15.30000 5.38000 # H
220 1 1.59000 13.80000 5.83000 # H
221 8 2.40000 10.91000 8.86000 # O
222 1 2.54000 10.07000 9.38000 # H
223 1 1.85000 11.55000 9.41000 # H
224 8 6.20000 17.86000 14.39000 # O
225 1 5.28000 17.69000 14.74000 # H
226 1 6.48000 18.78000 14.65000 # H
227 8 6.06000 9.64000 1.23000 # O
228 1 6.13000 10.48000 0.69000 # H
229 1 6.52000 9.77000 2.11000 # H
230 8 15.94000 1.14000 14.80000 # O
231 1 15.76000 1.81000 14.08000 # H
232 1 15.91000 1.60000 15.69000 # H
233 8 1.22000 6.43000 5.63000 # O
234 1 0.77000 5.55000 5.80000 # H
235 1 1.21000 6.97000 6.47000 # H
236 8 18.42000 17.67000 3.59000 # O
237 1 18.96000 17.38000 4.39000 # H
238 1 18.72000 18.57000 3.30000 # H
239 8 0.27000 15.96000 1.17000 # O
240 1 0.08000 15.00000 1.38000 # H
241 1 -0.06000 16.54000 1.92000 # H
242 8 16.89000 9.22000 6.12000 # O
243 1 17.84000 8.93000 6.20000 # H
244 1 16.81000 9.87000 5.37000 # H
245 8 16.41000 11.08000 4.32000 # O
246 1 17.27000 11.10000 3.80000 # H
247 1 16.55000 11.55000 5.20000 # H
248 8 1.13000 7.37000 15.97000 # O
249 1 2.01000 7.24000 16.42000 # H
250 1 1.00000 8.34000 15.75000 # H
251 8 6.13000 13.65000 7.26000 # O
252 1 5.64000 12.78000 7.35000 # H
253 1 5.90000 14.08000 6.39000 # H
254 8 12.93000 12.28000 14.23000 # O
255 1 13.30000 11.55000 13.65000 # H
256 1 13.45000 12.33000 15.08000 # H
257 8 8.09000 0.04000 5.02000 # O
258 1 8.49000 0.95000 4.93000 # H
259 1 7.09000 0.12000 5.08000 # H
260 8 1.97000 9.76000 12.64000 # O
261 1 2.86000 9.31000 12.50000 # H
262 1 1.24000 9.11000 12.45000 # H
263 8 15.25000 9.99000 1.90000 # O
264 1 14.62000 9.23000 2.03000 # H
265 1 15.73000 10.17000 2.76000 # H
266 8 11.87000 17.92000 16.16000 # O
267 1 12.11000 18.52000 15.40000 # H
268 1 11.94000 16.97000 15.86000 # H
269 8 3.17000 2.51000 18.01000 # O
270 1 3.88000 3.22000 18.07000 # H
271 1 2.29000 2.90000 18.29000 # H
272 8 14.66000 14.17000 9.53000 # O
273 1 14.07000 14.23000 10.33000 # H
274 1 14.51000 13.29000 9.07000 # H
275 8 16.67000 17.14000 5.72000 # O
276 1 16.26000 16.91000 4.84000 # H
277 1 16.49000 16.40000 6.37000 # H
278 8 5.98000 7.29000 2.70000 # O
279 1 6.22000 7.98000 2.02000 # H
280 1 5.20000 7.62000 3.24000 # H
281 8 12.81000 3.45000 9.44000 # O
282 1 11.95000 2.95000 9.31000 # H
283 1 13.43000 2.91000 10.00000 # H
284 8 15.76000 16.62000 3.07000 # O
285 1 16.65000 17.08000 3.10000 # H
286 1 15.55000 16.38000 2.12000 # H
287 8 8.07000 6.05000 14.65000 # O
288 1 7.60000 6.02000 15.54000 # H
289 1 7.56000 5.50000 13.99000 # H
290 8 13.94000 4.69000 16.74000 # O
291 1 13.74000 5.12000 17.62000 # H
292 1 14.72000 4.07000 16.83000 # H
293 8 9.73000 8.90000 15.72000 # O
294 1 10.19000 8.06000 15.43000 # H
295 1 9.17000 9.24000 14.97000 # H
296 8 9.91000 4.10000 12.42000 # O
297 1 9.14000 4.44000 12.96000 # H
298 1 9.57000 3.59000 11.63000 # H
299 8 10.41000 7.01000 4.29000 # O
300 1 10.67000 6.97000 5.25000 # H
301 1 9.56000 6.50000 4.15000 # H
302 8 0.76000 8.11000 7.89000 # O
303 1 1.75000 7.99000 7.98000 # H
304 1 0.52000 9.06000 8.10000 # H
305 8 1.30000 18.21000 15.71000 # O
306 1 1.20000 18.06000 16.70000 # H
307 1 0.44000 18.57000 15.35000 # H
308 8 8.65000 3.48000 1.95000 # O
309 1 9.24000 4.11000 1.46000 # H
310 1 8.84000 2.54000 1.66000 # H
311 8 17.19000 5.85000 18.31000 # O
312 1 16.93000 6.74000 17.95000 # H
313 1 17.17000 5.17000 17.58000 # H
314 8 13.62000 11.44000 5.45000 # O
315 1 14.45000 11.15000 4.97000 # H
316 1 13.13000 12.11000 4.89000 # H
317 8 5.50000 1.96000 8.85000 # O
318 1 5.45000 1.91000 9.85000 # H
319 1 5.52000 2.92000 8.56000 # H
320 8 10.08000 14.56000 4.77000 # O
321 1 9.62000 15.28000 4.25000 # H
322 1 10.04000 14.76000 5.75000 # H
323 8 3.51000 18.01000 8.53000 # O
324 1 4.01000 17.15000 8.59000 # H
325 1 4.16000 18.78000 8.50000 # H
326 8 17.95000 10.66000 8.73000 # O
327 1 17.33000 10.51000 7.97000 # H
328 1 17.43000 10.77000 9.58000 # H
329 8 12.27000 15.50000 15.06000 # O
330 1 12.33000 14.73000 15.70000 # H
331 1 11.75000 15.24000 14.26000 # H
332 8 3.21000 9.43000 2.42000 # O
333 1 4.03000 9.82000 2.00000 # H
334 1 2.94000 8.61000 1.93000 # H
335 8 14.58000 7.35000 7.28000 # O
336 1 14.53000 6.70000 8.03000 # H
337 1 15.38000 7.94000 7.41000 # H
338 8 4.61000 12.66000 17.27000 # O
339 1 4.11000 12.67000 16.41000 # H
340 1 3.98000 12.48000 18.03000 # H
341 8 11.11000 17.76000 2.37000 # O
342 1 10.51000 17.14000 2.87000 # H
343 1 11.42000 17.32000 1.52000 # H
344 8 2.02000 2.85000 14.98000 # O
345 1 1.22000 3.45000 14.85000 # H
346 1 1.92000 2.36000 15.84000 # H
347 8 16.32000 13.77000 0.81000 # O
348 1 16.00000 14.71000 0.71000 # H
349 1 15.56000 13.14000 0.69000 # H
350 8 4.64000 17.43000 3.23000 # O
351 1 4.97000 17.82000 4.09000 # H
352 1 5.40000 17.36000 2.58000 # H
353 8 14.00000 1.07000 4.26000 # O
354 1 13.76000 0.70000 3.36000 # H
355 1 14.99000 1.23000 4.30000 # H
356 8 2.49000 17.85000 12.41000 # O
357 1 3.06000 17.20000 12.91000 # H
358 1 2.33000 17.52000 11.48000 # H
359 8 9.40000 16.98000 9.04000 # O
360 1 10.20000 16.41000 9.25000 # H
361 1 8.91000 16.58000 8.27000 # H
362 8 3.82000 7.00000 4.80000 # O
363 1 4.27000 6.10000 4.77000 # H
364 1 2.88000 6.89000 5.13000 # H
365 8 15.47000 2.22000 17.29000 # O
366 1 15.42000 2.59000 18.21000 # H
367 1 14.75000 1.53000 17.17000 # H
368 8 6.14000 1.22000 1.17000 # O
369 1 7.12000 1.00000 1.24000 # H
370 1 5.83000 1.05000 0.24000 # H
371 8 7.81000 2.64000 17.49000 # O
372 1 8.48000 2.03000 17.92000 # H
373 1 7.08000 2.83000 18.14000 # H
374 8 8.88000 15.14000 11.95000 # O
375 1 8.65000 14.89000 11.01000 # H
376 1 9.49000 14.45000 12.34000 # H
377 8 13.51000 5.90000 14.33000 # O
378 1 13.79000 5.47000 15.18000 # H
379 1 13.76000 6.86000 14.34000 # H
380 8 8.03000 14.02000 9.24000 # O
381 1 8.93000 14.16000 8.82000 # H
382 1 7.32000 14.04000 8.53000 # H
383 8 9.22000 5.03000 8.99000 # O
384 1 8.97000 4.94000 8.03000 # H
385 1 9.70000 4.21000 9.30000 # H
386 8 5.39000 0.64000 5.12000 # O
387 1 4.58000 0.65000 5.70000 # H
388 1 5.42000 1.47000 4.57000 # H
389 8 14.34000 11.88000 0.41000 # O
390 1 14.66000 11.12000 0.98000 # H
391 1 13.42000 12.15000 0.71000 # H
392 8 2.97000 0.35000 1.71000 # O
393 1 3.46000 1.19000 1.50000 # H
394 1 3.59000 -0.30000 2.16000 # H
395 8 9.35000 2.36000 4.80000 # O
396 1 8.87000 2.77000 4.02000 # H
397 1 10.34000 2.34000 4.61000 # H
398 8 10.76000 6.83000 14.64000 # O
399 1 9.96000 6.22000 14.67000 # H
400 1 11.57000 6.30000 14.40000 # H
401 8 12.27000 15.70000 7.93000 # O
402 1 12.48000 16.44000 7.28000 # H
403 1 12.95000 15.70000 8.66000 # H
404 8 4.59000 11.52000 7.41000 # O
405 1 3.88000 11.25000 8.06000 # H
406 1 4.33000 11.24000 6.48000 # H
407 8 12.71000 17.97000 5.91000 # O
408 1 13.15000 18.61000 5.27000 # H
409 1 12.21000 18.49000 6.61000 # H
410 8 10.32000 5.49000 0.16000 # O
411 1 9.91000 6.31000 -0.23000 # H
412 1 10.96000 5.75000 0.89000 # H
413 8 0.78000 5.56000 13.86000 # O
414 1 1.70000 5.55000 13.45000 # H
415 1 0.72000 6.30000 14.53000 # H
416 8 5.61000 2.22000 11.47000 # O
417 1 5.99000 1.38000 11.84000 # H
418 1 4.73000 2.41000 11.91000 # H
419 8 8.66000 4.54000 6.42000 # O
420 1 8.34000 5.26000 5.80000 # H
421 1 8.90000 3.73000 5.89000 # H
422 8 10.17000 0.39000 7.53000 # O
423 1 9.45000 0.44000 6.84000 # H
424 1 9.93000 -0.30000 8.22000 # H
425 8 14.29000 11.73000 8.67000 # O
426 1 13.74000 10.89000 8.60000 # H
427 1 14.55000 12.02000 7.75000 # H
428 8 14.66000 5.90000 9.92000 # O
429 1 14.36000 4.95000 9.99000 # H
430 1 15.39000 6.06000 10.58000 # H
431 8 18.57000 8.33000 3.77000 # O
432 1 18.99000 7.69000 4.41000 # H
433 1 18.19000 7.82000 2.99000 # H
434 8 4.88000 13.85000 1.74000 # O
435 1 4.01000 13.70000 2.21000 # H
436 1 4.71000 14.11000 0.79000 # H
437 8 16.64000 12.80000 6.57000 # O
438 1 17.63000 12.88000 6.71000 # H
439 1 16.19000 13.64000 6.88000 # H
440 8 13.90000 5.75000 0.78000 # O
441 1 13.36000 5.54000 1.59000 # H
442 1 14.81000 5.34000 0.87000 # H
443 8 5.27000 2.56000 3.28000 # O
444 1 5.54000 1.97000 2.53000 # H
445 1 5.27000 3.51000 2.97000 # H
446 8 17.54000 12.23000 15.88000 # O
447 1 18.45000 11.84000 15.75000 # H
448 1 17.62000 13.19000 16.12000 # H
449 8 10.64000 13.47000 13.40000 # O
450 1 9.84000 13.24000 13.95000 # H
451 1 11.47000 13.21000 13.89000 # H
452 8 15.92000 16.29000 16.25000 # O
453 1 16.19000 16.63000 15.35000 # H
454 1 16.71000 15.91000 16.71000 # H
455 8 11.11000 11.95000 11.00000 # O
456 1 10.71000 12.39000 11.81000 # H
457 1 10.70000 12.32000 10.17000 # H
458 8 16.38000 10.99000 10.79000 # O
459 1 16.43000 11.80000 11.38000 # H
460 1 15.52000 11.01000 10.28000 # H
461 8 9.15000 0.89000 14.02000 # O
462 1 9.40000 0.69000 13.07000 # H
463 1 9.87000 1.45000 14.44000 # H
464 8 9.80000 11.16000 17.19000 # O
465 1 8.81000 11.22000 17.29000 # H
466 1 10.03000 10.36000 16.63000 # H
467 8 7.05000 10.50000 3.68000 # O
468 1 6.91000 10.57000 4.67000 # H
469 1 7.89000 9.99000 3.50000 # H
470 8 4.10000 8.13000 12.51000 # O
471 1 4.96000 8.25000 13.01000 # H
472 1 3.68000 7.26000 12.78000 # H
473 8 12.74000 3.86000 12.62000 # O
474 1 12.95000 4.60000 13.26000 # H
475 1 11.85000 4.03000 12.19000 # H
476 8 0.64000 15.64000 13.31000 # O
477 1 0.18000 16.46000 12.97000 # H
478 1 1.62000 15.83000 13.40000 # H
479 8 3.67000 11.00000 5.01000 # O
480 1 3.60000 11.83000 4.45000 # H
481 1 3.71000 10.20000 4.41000 # H
482 8 5.66000 5.37000 8.65000 # O
483 1 5.78000 6.03000 7.91000 # H
484 1 6.12000 5.71000 9.48000 # H
485 8 12.52000 13.48000 3.88000 # O
486 1 13.02000 14.25000 4.28000 # H
487 1 11.57000 13.50000 4.20000 # H
488 8 12.72000 14.45000 11.42000 # O
489 1 13.19000 14.58000 12.29000 # H
490 1 12.06000 13.71000 11.51000 # H
491 8 15.82000 6.39000 4.72000 # O
492 1 15.51000 7.00000 5.45000 # H
493 1 16.32000 6.91000 4.03000 # H
494 8 3.54000 15.10000 13.29000 # O
495 1 3.33000 14.66000 12.42000 # H
496 1 4.51000 15.36000 13.32000 # H
497 8 4.02000 7.51000 15.98000 # O
498 1 4.70000 8.06000 15.51000 # H
499 1 4.42000 6.63000 16.25000 # H
500 8 15.87000 7.79000 16.70000 # O
501 1 14.95000 8.17000 16.65000 # H
502 1 16.47000 8.26000 16.05000 # H
503 8 10.13000 1.05000 17.70000 # O
504 1 10.19000 1.90000 17.18000 # H
505 1 10.45000 0.29000 17.13000 # H
506 8 5.04000 0.50000 17.40000 # O
507 1 4.62000 -0.07000 16.70000 # H
508 1 4.38000 1.19000 17.72000 # H
509 8 5.73000 8.70000 10.29000 # O
510 1 6.17000 9.59000 10.20000 # H
511 1 5.10000 8.70000 11.06000 # H
512 8 13.60000 8.62000 10.45000 # O
513 1 12.85000 8.62000 9.79000 # H
514 1 13.97000 7.70000 10.54000 # H
515 8 12.09000 5.25000 2.75000 # O
516 1 12.22000 4.41000 3.29000 # H
517 1 11.80000 5.99000 3.35000 # H
518 8 3.07000 2.13000 12.31000 # O
519 1 2.84000 2.50000 13.21000 # H
520 1 2.77000 1.18000 12.25000 # H
521 8 0.37000 13.10000 12.82000 # O
522 1 0.90000 12.61000 13.50000 # H
523 1 0.59000 14.08000 12.87000 # H
524 8 7.32000 6.34000 10.64000 # O
525 1 7.91000 6.08000 9.88000 # H
526 1 7.04000 7.30000 10.53000 # H
527 8 17.28000 9.35000 18.54000 # O
528 1 16.82000 9.28000 17.65000 # H
529 1 16.66000 9.79000 19.20000 # H
530 8 3.07000 0.63000 6.18000 # O
531 1 2.96000 1.57000 6.51000 # H
532 1 3.02000 0.00000 6.95000 # H
533 8 16.22000 3.67000 3.74000 # O
534 1 16.24000 2.91000 4.38000 # H
535 1 15.74000 4.44000 4.14000 # H
536 8 10.23000 7.66000 9.66000 # O
537 1 10.38000 7.87000 10.62000 # H
538 1 9.93000 6.71000 9.57000 # H
539 8 9.80000 15.73000 17.00000 # O
540 1 9.60000 16.17000 16.12000 # H
541 1 10.19000 14.82000 16.84000 # H
542 8 18.59000 15.18000 16.05000 # O
543 1 18.73000 15.45000 15.10000 # H
544 1 19.42000 15.40000 16.58000 # H
545 8 3.50000 8.98000 18.04000 # O
546 1 4.26000 9.42000 18.52000 # H
547 1 3.85000 8.51000 17.22000 # H
548 8 15.40000 2.74000 1.25000 # O
549 1 14.79000 1.99000 1.48000 # H
550 1 15.62000 3.26000 2.08000 # H
551 8 13.03000 8.38000 0.42000 # O
552 1 13.37000 7.45000 0.57000 # H
553 1 13.21000 8.65000 -0.53000 # H
554 8 10.68000 13.33000 8.49000 # O
555 1 10.75000 12.49000 7.94000 # H
556 1 11.30000 14.02000 8.13000 # H
557 8 3.19000 8.10000 9.49000 # O
558 1 4.12000 8.46000 9.54000 # H
559 1 3.13000 7.25000 10.01000 # H
560 8 3.39000 5.09000 10.06000 # O
561 1 2.87000 4.26000 9.89000 # H
562 1 4.16000 5.14000 9.42000 # H
563 8 11.38000 3.80000 16.78000 # O
564 1 10.93000 4.43000 17.42000 # H
565 1 12.31000 4.11000 16.61000 # H
566 8 11.60000 2.07000 14.77000 # O
567 1 11.60000 2.71000 15.54000 # H
568 1 11.88000 2.55000 13.94000 # H
569 8 0.08000 13.26000 2.00000 # O
570 1 -0.85000 13.47000 1.69000 # H
571 1 0.18000 12.27000 2.13000 # H
572 8 0.88000 18.01000 9.27000 # O
573 1 0.46000 17.15000 9.00000 # H
574 1 1.82000 18.04000 8.93000 # H
575 8 5.04000 15.68000 9.10000 # O
576 1 5.70000 16.42000 9.19000 # H
577 1 5.48000 14.89000 8.68000 # H
578 8 10.02000 7.96000 12.38000 # O
579 1 10.43000 7.64000 13.24000 # H
580 1 9.06000 7.69000 12.35000 # H
581 8 0.40000 5.44000 11.14000 # O
582 1 1.25000 5.11000 10.73000 # H
583 1 0.53000 5.59000 12.12000 # H
584 8 1.89000 5.20000 17.22000 # O
585 1 2.48000 4.80000 16.52000 # H
586 1 1.31000 5.91000 16.81000 # H
587 8 13.69000 9.50000 16.60000 # O
588 1 14.08000 10.39000 16.80000 # H
589 1 13.79000 9.30000 15.63000 # H
590 8 8.15000 5.72000 3.25000 # O
591 1 8.22000 4.83000 2.79000 # H
592 1 7.21000 6.06000 3.17000 # H
593 8 16.57000 6.04000 12.06000 # O
594 1 16.19000 5.35000 12.68000 # H
595 1 17.39000 5.68000 11.62000 # H
596 8 2.52000 15.64000 17.44000 # O
597 1 2.22000 16.21000 18.20000 # H
598 1 2.45000 14.67000 17.70000 # H
599 8 6.71000 4.64000 12.69000 # O
600 1 6.37000 3.75000 12.39000 # H
601 1 6.97000 5.18000 11.89000 # H
602 8 9.30000 16.78000 14.65000 # O
603 1 9.06000 16.60000 13.70000 # H
604 1 9.60000 17.72000 14.75000 # H
605 8 4.73000 5.00000 1.91000 # O
606 1 5.34000 5.80000 1.95000 # H
607 1 3.78000 5.31000 1.98000 # H
608 8 1.59000 11.37000 14.66000 # O
609 1 1.81000 10.76000 15.42000 # H
610 1 1.69000 10.88000 13.80000 # H
611 8 13.47000 10.59000 12.34000 # O
612 1 13.71000 9.96000 11.60000 # H
613 1 12.57000 10.99000 12.16000 # H
614 8 13.02000 8.55000 3.09000 # O
615 1 12.16000 8.24000 3.51000 # H
616 1 12.98000 8.41000 2.10000 # H
617 8 17.59000 17.47000 11.54000 # O
618 1 18.20000 17.77000 10.81000 # H
619 1 17.21000 16.58000 11.32000 # H
620 8 12.52000 17.31000 11.28000 # O
621 1 13.36000 17.36000 10.74000 # H
622 1 12.29000 16.35000 11.46000 # H
623 8 0.83000 12.58000 10.22000 # O
624 1 0.78000 12.57000 11.22000 # H
625 1 0.00000 12.17000 9.84000 # H
626 8 6.88000 16.62000 17.16000 # O
627 1 6.32000 17.43000 17.25000 # H
628 1 7.40000 16.66000 16.30000 # H
629 8 9.03000 0.86000 1.33000 # O
630 1 9.54000 0.87000 0.47000 # H
631 1 9.59000 0.44000 2.04000 # H
632 8 17.26000 1.35000 5.23000 # O
633 1 17.99000 1.18000 4.56000 # H
634 1 16.95000 0.48000 5.61000 # H
635 8 13.88000 15.73000 4.77000 # O
636 1 14.55000 15.85000 4.03000 # H
637 1 13.48000 16.62000 5.00000 # H
638 8 1.30000 17.94000 18.51000 # O
639 1 0.89000 17.20000 19.04000 # H
640 1 1.94000 18.45000 19.09000 # H
641 8 12.80000 9.27000 6.72000 # O
642 1 13.40000 8.46000 6.74000 # H
643 1 13.20000 9.96000 6.12000 # H
644 8 8.30000 12.73000 14.22000 # O
645 1 8.25000 13.06000 15.17000 # H
646 1 7.44000 12.92000 13.76000 # H
647 8 6.72000 16.16000 1.54000 # O
648 1 6.81000 16.26000 0.55000 # H
649 1 6.32000 15.27000 1.75000 # H
650 8 16.50000 17.20000 13.94000 # O
651 1 17.03000 17.30000 13.10000 # H
652 1 16.23000 18.10000 14.28000 # H
653 8 18.41000 1.75000 9.63000 # O
654 1 18.80000 0.90000 9.27000 # H
655 1 17.43000 1.77000 9.44000 # H
656 8 2.63000 3.26000 7.20000 # O
657 1 1.84000 3.77000 6.86000 # H
658 1 2.54000 3.11000 8.18000 # H
659 8 11.94000 16.12000 0.31000 # O
660 1 12.00000 15.19000 0.68000 # H
661 1 11.35000 16.12000 -0.49000 # H
662 8 8.22000 10.02000 13.72000 # O
663 1 8.62000 10.01000 12.80000 # H
664 1 8.32000 10.94000 14.12000 # H
665 8 9.16000 9.10000 2.91000 # O
666 1 9.79000 9.48000 2.23000 # H
667 1 9.56000 8.27000 3.30000 # H
668 8 15.04000 16.07000 0.44000 # O
669 1 14.12000 16.44000 0.51000 # H
670 1 15.42000 16.27000 -0.46000 # H
671 8 3.72000 12.88000 14.90000 # O
672 1 3.59000 13.81000 14.56000 # H
673 1 2.88000 12.36000 14.77000 # H
674 8 16.14000 12.92000 12.89000 # O
675 1 16.74000 12.95000 13.69000 # H
676 1 15.39000 13.56000 13.02000 # H
677 8 10.39000 10.98000 6.96000 # O
678 1 9.69000 10.51000 7.50000 # H
679 1 10.98000 10.30000 6.53000 # H
680 8 10.14000 2.36000 9.71000 # O
681 1 10.06000 2.00000 8.78000 # H
682 1 10.12000 1.60000 10.36000 # H
683 8 5.90000 14.87000 4.91000 # O
684 1 6.32000 14.29000 4.21000 # H
685 1 5.46000 15.66000 4.47000 # H
686 8 17.09000 3.85000 13.81000 # O
687 1 17.82000 4.54000 13.85000 # H
688 1 17.37000 3.10000 13.22000 # H
689 8 2.55000 13.48000 2.90000 # O
690 1 1.59000 13.49000 2.63000 # H
691 1 2.67000 14.01000 3.74000 # H
692 8 1.05000 10.13000 17.26000 # O
693 1 0.28000 9.80000 17.80000 # H
694 1 1.90000 9.83000 17.68000 # H
695 8 6.72000 2.03000 14.89000 # O
696 1 7.62000 1.87000 14.49000 # H
697 1 6.80000 2.08000 15.88000 # H
698 8 0.75000 3.45000 0.33000 # O
699 1 -0.17000 3.17000 0.04000 # H
700 1 1.06000 4.22000 -0.23000 # H
701 8 14.40000 8.56000 13.98000 # O
702 1 13.83000 9.08000 13.35000 # H
703 1 15.36000 8.68000 13.74000 # H
704 8 0.72000 1.66000 3.18000 # O
705 1 0.55000 2.49000 2.64000 # H
706 1 1.62000 1.29000 2.96000 # H
707 8 11.83000 13.35000 1.19000 # O
708 1 10.84000 13.24000 1.21000 # H
709 1 12.17000 13.50000 2.12000 # H
710 8 6.13000 8.42000 14.31000 # O
711 1 6.69000 9.23000 14.14000 # H
712 1 6.72000 7.62000 14.34000 # H
713 8 14.93000 17.67000 9.59000 # O
714 1 15.26000 18.31000 8.90000 # H
715 1 15.59000 17.61000 10.34000 # H
716 8 7.16000 5.65000 17.08000 # O
717 1 7.35000 6.30000 17.82000 # H
718 1 7.76000 4.85000 17.17000 # H
719 8 14.50000 12.20000 16.33000 # O
720 1 14.41000 12.10000 17.32000 # H
721 1 15.46000 12.13000 16.07000 # H
722 8 3.90000 17.41000 15.60000 # O
723 1 2.99000 17.82000 15.58000 # H
724 1 3.83000 16.47000 15.92000 # H
725 8 16.74000 8.83000 12.54000 # O
726 1 16.47000 7.94000 12.17000 # H
727 1 16.75000 9.51000 11.81000 # H
728 8 12.25000 3.25000 4.49000 # O
729 1 12.90000 2.51000 4.38000 # H
730 1 12.45000 3.75000 5.33000 # H
731 8 5.94000 7.45000 6.52000 # O
732 1 6.44000 8.30000 6.33000 # H
733 1 5.06000 7.47000 6.04000 # H
734 8 17.77000 3.42000 16.42000 # O
735 1 17.60000 3.73000 15.48000 # H
736 1 16.93000 3.05000 16.80000 # H
737 8 17.30000 9.34000 15.17000 # O
738 1 17.68000 10.25000 15.32000 # H
739 1 17.22000 9.17000 14.18000 # H
740 8 8.59000 13.74000 0.16000 # O
741 1 8.13000 13.89000 1.04000 # H
742 1 9.03000 14.59000 -0.14000 # H
743 8 6.61000 17.90000 9.53000 # O
744 1 6.15000 18.78000 9.40000 # H
745 1 7.60000 18.02000 9.46000 # H
746 8 8.59000 9.56000 8.61000 # O
747 1 9.13000 8.87000 9.09000 # H
748 1 8.27000 10.25000 9.27000 # H
749 8 10.83000 9.84000 0.87000 # O
750 1 10.60000 10.37000 0.05000 # H
751 1 11.64000 9.28000 0.68000 # H
752 8 18.61000 15.69000 8.51000 # O
753 1 17.90000 15.57000 7.81000 # H
754 1 18.62000 14.90000 9.11000 # H
755 8 2.21000 13.14000 18.44000 # O
756 1 1.56000 12.41000 18.23000 # H
757 1 2.25000 13.28000 19.42000 # H
758 8 0.79000 12.40000 6.53000 # O
759 1 0.78000 11.93000 7.41000 # H
760 1 1.61000 12.12000 6.02000 # H
761 8 6.72000 13.91000 16.24000 # O
762 1 5.94000 13.41000 16.62000 # H
763 1 6.69000 14.86000 16.55000 # H
764 8 18.24000 1.92000 12.27000 # O
765 1 18.20000 1.02000 12.71000 # H
766 1 18.27000 1.81000 11.28000 # H
767 8 4.28000 4.24000 5.20000 # O
768 1 4.58000 3.52000 4.58000 # H
769 1 3.89000 3.84000 6.03000 # H
770 8 17.05000 14.87000 11.04000 # O
771 1 16.12000 14.62000 10.77000 # H
772 1 17.31000 14.37000 11.86000 # H
773 8 3.17000 5.47000 12.80000 # O
774 1 3.55000 4.88000 13.52000 # H
775 1 3.57000 5.21000 11.92000 # H
776 8 8.12000 15.86000 6.87000 # O
777 1 8.44000 15.96000 5.93000 # H
778 1 7.33000 15.24000 6.89000 # H
779 8 14.24000 2.14000 11.12000 # O
780 1 14.76000 1.49000 11.67000 # H
781 1 13.75000 2.77000 11.73000 # H
782 8 10.01000 0.34000 11.54000 # O
783 1 9.38000 -0.38000 11.23000 # H
784 1 10.94000 -0.02000 11.54000 # H
785 8 7.70000 13.30000 3.01000 # O
786 1 7.24000 12.43000 3.18000 # H
787 1 8.61000 13.27000 3.42000 # H
788 8 6.18000 15.67000 12.84000 # O
789 1 6.13000 16.49000 13.41000 # H
790 1 7.07000 15.64000 12.39000 # H
791 8 13.52000 0.52000 1.68000 # O
792 1 13.87000 0.11000 0.84000 # H
793 1 12.62000 0.14000 1.88000 # H
794 8 13.00000 4.53000 6.91000 # O
795 1 12.41000 5.33000 6.95000 # H
796 1 13.15000 4.18000 7.84000 # H
797 8 15.93000 2.21000 8.82000 # O
798 1 15.09000 2.20000 9.36000 # H
799 1 15.95000 3.04000 8.26000 # H
800 8 0.39000 10.77000 3.00000 # O
801 1 1.38000 10.66000 2.91000 # H
802 1 -0.01000 9.91000 3.32000 # H
803 8 8.75000 16.46000 3.37000 # O
804 1 7.98000 16.11000 2.83000 # H
805 1 8.43000 17.17000 3.99000 # H
806 8 2.30000 6.28000 19.75000 # O
807 1 1.37000 6.26000 20.12000 # H
808 1 2.31000 5.89000 18.83000 # H
809 8 2.25000 2.75000 28.58000 # O
810 1 2.60000 2.58000 29.50000 # H
811 1 1.37000 2.30000 28.46000 # H
812 8 0.19000 3.68000 25.09000 # O
813 1 -0.63000 4.11000 25.48000 # H
814 1 -0.09000 2.95000 24.46000 # H
815 8 5.69000 12.75000 30.27000 # O
816 1 4.76000 12.68000 29.90000 # H
817 1 5.80000 13.64000 30.71000 # H
818 8 15.55000 15.11000 25.65000 # O
819 1 14.98000 14.95000 26.46000 # H
820 1 14.96000 15.21000 24.85000 # H
821 8 11.35000 7.03000 25.79000 # O
822 1 11.92000 7.81000 25.54000 # H
823 1 10.75000 7.29000 26.55000 # H
824 8 17.55000 6.07000 20.93000 # O
825 1 17.43000 5.94000 19.94000 # H
826 1 17.25000 5.26000 21.42000 # H
827 8 7.68000 11.44000 28.85000 # O
828 1 6.90000 11.61000 29.45000 # H
829 1 8.02000 12.31000 28.49000 # H
830 8 8.50000 7.98000 36.85000 # O
831 1 8.46000 8.74000 37.50000 # H
832 1 8.72000 8.34000 35.94000 # H
833 8 6.85000 10.12000 25.27000 # O
834 1 7.54000 9.96000 25.97000 # H
835 1 6.12000 10.69000 25.65000 # H
836 8 6.86000 11.61000 36.65000 # O
837 1 7.46000 12.40000 36.79000 # H